# vtk DataFile Version 5.1
vtk output
ASCII
DATASET POLYDATA
POINTS 42 float
-7.80432 2.94405 -1.4861 -7.80432 2.94405 1.2933 7.11901 2.94405 -1.4861 
7.11901 2.94405 1.2933 7.11901 -2.8354 -1.4861 7.11901 -2.8354 2.10783 
-7.80432 0.712677 2.10783 -7.80432 0.712677 -1.4861 -1.5943 -2.8354 2.10783 
-1.5943 -2.8354 -1.4861 -1.5943 0.712677 -1.4861 -1.5943 0.712677 2.10783 
-7.80432 1.82836 -1.4861 -7.80432 1.82836 -0.096401 -7.80432 2.94405 -0.096401 
-1.5943 -2.8354 0.310861 2.76235 -2.8354 0.310861 2.76235 -2.8354 2.10783 
7.11901 2.94405 -0.096401 7.11901 0.0543265 -0.096401 7.11901 0.0543265 -1.4861 
-0.342653 2.94405 -1.4861 -0.342653 2.94405 -0.096401 -4.69931 0.712677 -1.4861 
-4.69931 1.82836 -1.4861 -0.342653 2.94405 1.2933 -4.69931 1.82836 1.70056 
2.76235 1.82836 1.70056 -1.5943 -1.06136 0.310861 -1.5943 -1.06136 -1.4861 
-4.69931 0.712677 0.310861 -7.80432 0.712677 0.310861 -7.80432 1.82836 1.70056 
2.76235 -2.8354 -1.4861 7.11901 -2.8354 0.310861 7.11901 0.0543265 1.70056 
2.76235 -1.06136 -1.4861 2.76235 1.82836 -1.4861 -4.69931 0.712677 2.10783 
2.76235 -1.06136 2.10783 -1.5943 -1.06136 2.10783 -1.5943 0.712677 0.310861 

POLYGONS 81 240
OFFSETS vtktypeint64
0 3 6 9 12 15 18 21 24 
27 30 33 36 39 42 45 48 51 
54 57 60 63 66 69 72 75 78 
81 84 87 90 93 96 99 102 105 
108 111 114 117 120 123 126 129 132 
135 138 141 144 147 150 153 156 159 
162 165 168 171 174 177 180 183 186 
189 192 195 198 201 204 207 210 213 
216 219 222 225 228 231 234 237 240 

CONNECTIVITY vtktypeint64
7 13 12 13 1 14 14 0 12 
13 14 12 9 16 15 16 5 17 
17 8 15 16 17 15 3 19 18 
19 4 20 20 2 18 19 20 18 
0 22 21 22 3 18 18 2 21 
22 18 21 7 12 23 12 0 24 
24 10 23 12 24 23 1 26 25 
26 11 27 27 3 25 26 27 25 
8 28 15 28 10 29 29 9 15 
28 29 15 10 30 23 30 6 31 
31 7 23 30 31 23 6 32 31 
32 1 13 13 7 31 32 13 31 
4 34 33 34 5 16 16 9 33 
34 16 33 5 34 35 34 4 19 
19 3 35 34 19 35 1 25 14 
25 3 22 22 0 14 25 22 14 
4 33 36 33 9 29 29 10 36 
33 29 36 2 20 37 20 4 36 
36 10 37 20 36 37 0 21 24 
21 2 37 37 10 24 21 37 24 
6 38 32 38 11 26 26 1 32 
38 26 32 5 35 39 35 3 27 
27 11 39 35 27 39 8 17 40 
17 5 39 39 11 40 17 39 40 
11 41 40 41 10 28 28 8 40 
41 28 40 11 38 41 38 6 30 
30 10 41 38 30 41 
CELL_DATA 80
FIELD FieldData 1
GroupIds 1 80 float
0 0 0 0 0 0 0 0 0 
0 0 0 0 0 0 0 0 0 
0 0 0 0 0 0 0 0 0 
0 0 0 0 0 0 0 0 0 
0 0 0 0 0 0 0 0 0 
0 0 0 0 0 0 0 0 0 
0 0 0 0 0 0 0 0 0 
0 0 0 0 0 0 0 0 0 
0 0 0 0 0 0 0 0 
