# vtk DataFile Version 5.1
vtk output
ASCII
DATASET POLYDATA
POINTS 12 float
-7.80432 2.94405 -1.4861 -7.80432 2.94405 1.2933 7.11901 2.94405 -1.4861 
7.11901 2.94405 1.2933 7.11901 -2.8354 -1.4861 7.11901 -2.8354 2.10783 
-7.80432 0.712677 2.10783 -7.80432 0.712677 -1.4861 -1.5943 -2.8354 2.10783 
-1.5943 -2.8354 -1.4861 -1.5943 0.712677 -1.4861 -1.5943 0.712677 2.10783 

POLYGONS 21 60
OFFSETS vtktypeint64
0 3 6 9 12 15 18 21 24 
27 30 33 36 39 42 45 48 51 
54 57 60 
CONNECTIVITY vtktypeint64
7 1 0 9 5 8 3 4 2 
0 3 2 7 0 10 1 11 3 
8 10 9 10 6 7 6 1 7 
4 5 9 5 4 3 1 3 0 
4 9 10 2 4 10 0 2 10 
6 11 1 5 3 11 8 5 11 
11 10 8 11 6 10 
CELL_DATA 20
FIELD FieldData 1
GroupIds 1 20 float
0 0 0 0 0 0 0 0 0 
0 0 0 0 0 0 0 0 0 
0 0 
POINT_DATA 12
NORMALS Normals float
-0.57735 0.57735 -0.57735 -0.598023 0.656749 0.459402 0.57735 0.57735 -0.57735 
0.595755 0.615612 0.515847 0.57735 -0.57735 -0.57735 0.580674 -0.544656 0.605118 
-0.561144 -0.474442 0.67825 -0.57735 -0.57735 -0.57735 -0.57735 -0.57735 0.57735 
-0.57735 -0.57735 -0.57735 -0.301511 -0.301511 -0.904534 -0.319673 -0.10318 0.941893 

